<VTKFile type="UnstructuredGrid" version="1.0" byte_order="LittleEndian" header_type="UInt64">
<UnstructuredGrid>
<Piece NumberOfPoints= "1280" NumberOfCells= "2825">
<Points>
<DataArray type="Float64" Name="Points" NumberOfComponents="3" format="ascii">
0.000000 0.000000 0.000000
0.000000 0.894737 0.000000
0.000000 0.000000 1.958110
1.179830 0.000000 0.989992
0.000000 1.789470 0.000000
0.000000 0.894737 1.958110
1.179830 0.894737 0.989992
0.000000 0.000000 3.719840
1.168340 0.000000 2.938460
2.359650 0.000000 1.979980
0.000000 2.684210 0.000000
0.000000 1.789470 1.958110
1.179830 1.789470 0.989992
0.000000 0.894737 3.719840
1.168340 0.894737 2.938460
2.359650 0.894737 1.979980
0.000000 0.000000 5.481570
0.000000 0.000000 7.243300
3.539480 0.000000 2.969980
1.164090 0.000000 4.708910
2.336670 0.000000 3.918810
0.000000 3.578950 0.000000
0.000000 2.684210 1.958110
1.179830 2.684210 0.989992
0.000000 1.789470 3.719840
1.168340 1.789470 2.938460
2.359650 1.789470 1.979980
0.000000 0.894737 5.481570
0.000000 0.894737 7.243300
1.164090 0.894737 4.708910
2.336670 0.894737 3.918810
3.539480 0.894737 2.969980
0.000000 0.000000 9.005040
0.000000 0.000000 10.505000
1.141570 0.000000 7.891560
5.630690 0.000000 4.724710
4.713930 0.000000 3.955460
1.508400 0.000000 6.279530
3.505010 0.000000 4.899160
2.354940 0.000000 5.213080
0.000000 4.473680 0.000000
0.000000 3.578950 1.958110
1.179830 3.578950 0.989992
0.000000 2.684210 3.719840
1.168340 2.684210 2.938460
2.359650 2.684210 1.979980
0.000000 1.789470 5.481570
0.000000 1.789470 7.243300
1.164090 1.789470 4.708910
2.336670 1.789470 3.918810
3.539480 1.789470 2.969980
0.000000 0.894737 9.005040
0.000000 0.894737 10.505000
1.141570 0.894737 7.891560
1.508400 0.894737 6.279530
2.354940 0.894737 5.213080
3.505010 0.894737 4.899160
4.713930 0.894737 3.955460
5.630690 0.894737 4.724710
1.540990 0.000000 9.005040
1.581330 0.000000 10.505000
6.267050 0.000000 5.258680
6.559410 0.000000 5.520760
5.469840 0.000000 5.568800
2.463690 0.000000 7.785860
4.672620 0.000000 5.878910
3.293920 0.000000 6.493230
0.000000 5.368420 0.000000
1.179830 4.473680 0.989992
0.000000 4.473680 1.958110
0.000000 3.578950 3.719840
1.168340 3.578950 2.938460
2.359650 3.578950 1.979980
0.000000 2.684210 7.243300
0.000000 2.684210 5.481570
1.164090 2.684210 4.708910
2.336670 2.684210 3.918810
3.539480 2.684210 2.969980
0.000000 1.789470 9.005040
0.000000 1.789470 10.505000
1.141570 1.789470 7.891560
1.508400 1.789470 6.279530
2.354940 1.789470 5.213080
3.505010 1.789470 4.899160
4.713930 1.789470 3.955460
5.630690 1.789470 4.724710
1.540990 0.894737 9.005040
1.581330 0.894737 10.505000
6.267050 0.894737 5.258680
6.559410 0.894737 5.520760
2.463690 0.894737 7.785860
3.293920 0.894737 6.493230
4.672620 0.894737 5.878910
5.469840 0.894737 5.568800
3.081980 0.000000 9.005040
3.162660 0.000000 10.505000
6.108520 0.000000 6.113090
6.833990 0.000000 5.801410
7.089630 0.000000 6.099410
7.325240 0.000000 6.413490
5.657630 0.000000 6.705420
4.012580 0.000000 7.870100
4.613420 0.000000 6.943900
0.000000 6.263160 0.000000
1.179830 5.368420 0.989992
0.000000 5.368420 1.958110
2.359650 4.473680 1.979980
1.168340 4.473680 2.938460
0.000000 4.473680 3.719840
0.000000 3.578950 7.243300
0.000000 3.578950 5.481570
3.539480 3.578950 2.969980
1.164090 3.578950 4.708910
2.336670 3.578950 3.918810
0.000000 2.684210 9.005040
0.000000 2.684210 10.505000
1.141570 2.684210 7.891560
1.508400 2.684210 6.279530
2.354940 2.684210 5.213080
3.505010 2.684210 4.899160
4.713930 2.684210 3.955460
5.630690 2.684210 4.724710
1.540990 1.789470 9.005040
1.581330 1.789470 10.505000
6.267050 1.789470 5.258680
6.559410 1.789470 5.520760
2.463690 1.789470 7.785860
3.293920 1.789470 6.493230
4.672620 1.789470 5.878910
5.469840 1.789470 5.568800
3.081980 0.894737 9.005040
3.162660 0.894737 10.505000
6.108520 0.894737 6.113090
6.833990 0.894737 5.801410
7.089630 0.894737 6.099410
7.325240 0.894737 6.413490
4.012580 0.894737 7.870100
4.613420 0.894737 6.943900
5.657630 0.894737 6.705420
4.621410 0.000000 9.005040
4.734890 0.000000 10.505000
6.636780 0.000000 6.747880
7.539800 0.000000 6.742310
7.732390 0.000000 7.084460
6.183920 0.000000 7.396350
5.615360 0.000000 8.113320
7.902200 0.000000 7.438470
0.000000 7.157890 0.000000
0.000000 6.263160 1.958110
1.179830 6.263160 0.989992
2.359650 5.368420 1.979980
1.168340 5.368420 2.938460
0.000000 5.368420 3.719840
0.000000 4.473680 5.481570
0.000000 4.473680 7.243300
3.539480 4.473680 2.969980
2.336670 4.473680 3.918810
1.164090 4.473680 4.708910
0.000000 3.578950 9.005040
0.000000 3.578950 10.505000
1.141570 3.578950 7.891560
5.630690 3.578950 4.724710
4.713930 3.578950 3.955460
1.508400 3.578950 6.279530
3.505010 3.578950 4.899160
2.354940 3.578950 5.213080
1.540990 2.684210 9.005040
1.581330 2.684210 10.505000
6.267050 2.684210 5.258680
6.559410 2.684210 5.520760
2.463690 2.684210 7.785860
3.293920 2.684210 6.493230
4.672620 2.684210 5.878910
5.469840 2.684210 5.568800
3.081980 1.789470 9.005040
3.162660 1.789470 10.505000
6.108520 1.789470 6.113090
6.833990 1.789470 5.801410
7.089630 1.789470 6.099410
7.325240 1.789470 6.413490
4.012580 1.789470 7.870100
4.613420 1.789470 6.943900
5.657630 1.789470 6.705420
4.621410 0.894737 9.005040
4.734890 0.894737 10.505000
6.636780 0.894737 6.747880
7.539800 0.894737 6.742310
7.732390 0.894737 7.084460
5.615360 0.894737 8.113320
6.184390 0.894737 7.396170
7.902200 0.894737 7.438470
5.887000 0.000000 9.005040
5.984360 0.000000 10.505000
7.048420 0.000000 7.573830
6.364440 0.000000 8.063200
6.398050 0.000000 8.447330
8.048480 0.000000 7.802830
0.000000 8.052630 0.000000
0.000000 7.157890 1.958110
1.179830 7.157890 0.989992
0.000000 6.263160 3.719840
1.168340 6.263160 2.938460
2.359650 6.263160 1.979980
0.000000 5.368420 5.481570
0.000000 5.368420 7.243300
3.539480 5.368420 2.969980
2.336670 5.368420 3.918810
1.164090 5.368420 4.708910
0.000000 4.473680 9.005040
0.000000 4.473680 10.505000
1.141570 4.473680 7.891560
4.713930 4.473680 3.955460
5.630690 4.473680 4.724710
1.508400 4.473680 6.279530
3.505010 4.473680 4.899160
2.354940 4.473680 5.213080
1.540990 3.578950 9.005040
1.581330 3.578950 10.505000
6.267050 3.578950 5.258680
6.559410 3.578950 5.520760
5.469840 3.578950 5.568800
2.463690 3.578950 7.785860
4.672620 3.578950 5.878910
3.293920 3.578950 6.493230
3.081980 2.684210 9.005040
3.162660 2.684210 10.505000
6.108520 2.684210 6.113090
6.833990 2.684210 5.801410
7.089630 2.684210 6.099410
7.325240 2.684210 6.413490
4.012580 2.684210 7.870100
4.613420 2.684210 6.943900
5.657630 2.684210 6.705420
4.621410 1.789470 9.005040
4.734890 1.789470 10.505000
6.636780 1.789470 6.747880
7.539800 1.789470 6.742310
7.732390 1.789470 7.084460
5.615360 1.789470 8.113320
6.184850 1.789470 7.396000
7.902200 1.789470 7.438470
5.887000 0.894737 9.005040
5.984360 0.894737 10.505000
7.048420 0.894737 7.573830
6.398050 0.894737 8.447330
6.364440 0.894737 8.063200
8.048480 0.894737 7.802830
6.827490 0.000000 10.505000
7.413000 0.000000 10.505000
6.905520 0.000000 9.476180
7.333080 0.000000 8.501820
8.170630 0.000000 8.175970
7.876880 0.000000 10.389000
0.000000 8.947370 0.000000
0.000000 8.052630 1.958110
1.179830 8.052630 0.989992
0.000000 7.157890 3.719840
1.168340 7.157890 2.938460
2.359650 7.157890 1.979980
0.000000 6.263160 5.481570
0.000000 6.263160 7.243300
1.164090 6.263160 4.708910
2.336670 6.263160 3.918810
3.539480 6.263160 2.969980
0.000000 5.368420 9.005040
0.000000 5.368420 10.505000
1.141570 5.368420 7.891560
4.713930 5.368420 3.955460
5.630690 5.368420 4.724710
1.508400 5.368420 6.279530
3.505010 5.368420 4.899160
2.354940 5.368420 5.213080
1.540990 4.473680 9.005040
1.581330 4.473680 10.505000
6.267050 4.473680 5.258680
6.559410 4.473680 5.520760
5.469840 4.473680 5.568800
2.463690 4.473680 7.785860
4.672620 4.473680 5.878910
3.293920 4.473680 6.493230
3.081980 3.578950 9.005040
3.162660 3.578950 10.505000
6.108520 3.578950 6.113090
6.833990 3.578950 5.801410
7.089630 3.578950 6.099410
7.325240 3.578950 6.413490
5.657630 3.578950 6.705420
4.012580 3.578950 7.870100
4.613420 3.578950 6.943900
4.621410 2.684210 9.005040
4.734890 2.684210 10.505000
6.636780 2.684210 6.747880
7.539800 2.684210 6.742310
7.732390 2.684210 7.084460
5.615360 2.684210 8.113320
6.185320 2.684210 7.395820
7.902200 2.684210 7.438470
5.887000 1.789470 9.005040
5.984360 1.789470 10.505000
7.048420 1.789470 7.573830
6.398050 1.789470 8.447330
6.364440 1.789470 8.063200
8.048480 1.789470 7.802830
6.827490 0.894737 10.505000
7.413000 0.894737 10.505000
6.905520 0.894737 9.476180
7.333080 0.894737 8.501820
8.170630 0.894737 8.175970
7.518010 0.000000 9.857120
7.623010 0.000000 9.209190
8.268100 0.000000 8.556310
8.217420 0.000000 10.089800
7.876880 0.894737 10.389000
0.000000 9.842110 0.000000
0.000000 8.947370 1.958110
1.179830 8.947370 0.989992
0.000000 8.052630 3.719840
1.168340 8.052630 2.938460
2.359650 8.052630 1.979980
0.000000 7.157890 7.243300
0.000000 7.157890 5.481570
1.164090 7.157890 4.708910
2.336670 7.157890 3.918810
3.539480 7.157890 2.969980
0.000000 6.263160 9.005040
0.000000 6.263160 10.505000
1.141570 6.263160 7.891560
1.508400 6.263160 6.279530
2.354940 6.263160 5.213080
3.505010 6.263160 4.899160
4.713930 6.263160 3.955460
5.630690 6.263160 4.724710
1.540990 5.368420 9.005040
1.581330 5.368420 10.505000
6.267050 5.368420 5.258680
6.559410 5.368420 5.520760
5.469840 5.368420 5.568800
2.463690 5.368420 7.785860
4.672620 5.368420 5.878910
3.293920 5.368420 6.493230
3.081980 4.473680 9.005040
3.162660 4.473680 10.505000
6.108520 4.473680 6.113090
6.833990 4.473680 5.801410
7.089630 4.473680 6.099410
7.325240 4.473680 6.413490
5.657630 4.473680 6.705420
4.012580 4.473680 7.870100
4.613420 4.473680 6.943900
4.621410 3.578950 9.005040
4.734890 3.578950 10.505000
6.636780 3.578950 6.747880
7.539800 3.578950 6.742310
7.732390 3.578950 7.084460
6.185420 3.578950 7.395840
5.615360 3.578950 8.113320
7.902200 3.578950 7.438470
5.887000 2.684210 9.005040
5.984360 2.684210 10.505000
[...]
<PointData>
<DataArray type="Float64" Name="mode01" NumberOfComponents="3" format="ascii">
0.0000000000 0.0000000000 0.0000000000
0.0000000000 0.0000000000 0.0000000000
0.0000000000 0.0000000000 0.0000000000
0.0000000000 0.0000000000 0.0000000000
0.0000000000 0.0000000000 0.0000000000
0.0000000000 0.0000000000 0.0000000000
0.0000000895 0.0000001568 0.0000002441
0.0000000000 0.0000000000 0.0000000000
0.0000000000 0.0000000000 0.0000000000
0.0000000000 0.0000000000 0.0000000000
0.0000000000 0.0000000000 0.0000000000
0.0000000000 0.0000000000 0.0000000000
0.0000001618 0.0000002320 0.0000003951
0.0000000000 0.0000000000 0.0000000000
0.0000001239 0.0000001416 0.0000001805
0.0000002007 0.0000003349 0.0000004898
0.0000000000 0.0000000000 0.0000000000
0.0000000000 0.0000000000 0.0000000000
0.0000000000 0.0000000000 0.0000000000
0.0000000000 0.0000000000 0.0000000000
0.0000000000 0.0000000000 0.0000000000
0.0000000000 0.0000000000 0.0000000000
0.0000000000 0.0000000000 0.0000000000
0.0000002173 0.0000002632 0.0000005238
0.0000000000 0.0000000000 0.0000000000
0.0000002083 0.0000002360 0.0000003356
0.0000003897 0.0000005299 0.0000008350
0.0000000000 0.0000000000 0.0000000000
0.0000000000 0.0000000000 0.0000000000
0.0000001207 0.0000000977 0.0000000992
0.0000002388 0.0000002450 0.0000003484
0.0000003151 0.0000005327 0.0000007777
0.0000000000 0.0000000000 0.0000000000
0.0000000000 0.0000000000 0.0000000000
0.0000000000 0.0000000000 0.0000000000
0.0000000000 0.0000000000 0.0000000000
0.0000000000 0.0000000000 0.0000000000
0.0000000000 0.0000000000 0.0000000000
0.0000000000 0.0000000000 0.0000000000
0.0000000000 0.0000000000 0.0000000000
0.0000000000 0.0000000000 0.0000000000
0.0000000000 0.0000000000 0.0000000000
0.0000002692 0.0000002707 0.0000006413
0.0000000000 0.0000000000 0.0000000000
0.0000002726 0.0000002908 0.0000004854
0.0000005508 0.0000006384 0.0000011496
0.0000000000 0.0000000000 0.0000000000
0.0000000000 0.0000000000 0.0000000000
0.0000001893 0.0000001696 0.0000002390
0.0000004151 0.0000004291 0.0000006954
0.0000006350 0.0000008677 0.0000013856
0.0000000000 0.0000000000 0.0000000000
0.0000000000 0.0000000000 0.0000000000
-0.0000001139 -0.0000001103 0.0000000222
0.0000000501 0.0000000231 0.0000000714
0.0000002006 0.0000001562 0.0000002636
0.0000002976 0.0000003432 0.0000005740
0.0000003868 0.0000007970 0.0000011448
0.0000003616 0.0000010551 0.0000014735
0.0000000000 0.0000000000 0.0000000000
0.0000000000 0.0000000000 0.0000000000
0.0000000000 0.0000000000 0.0000000000
0.0000000000 0.0000000000 0.0000000000
0.0000000000 0.0000000000 0.0000000000
0.0000000000 0.0000000000 0.0000000000
0.0000000000 0.0000000000 0.0000000000
0.0000000000 0.0000000000 0.0000000000
0.0000000000 0.0000000000 0.0000000000
0.0000003165 0.0000002564 0.0000007498
0.0000000000 0.0000000000 0.0000000000
0.0000000000 0.0000000000 0.0000000000
0.0000003317 0.0000003110 0.0000006280
0.0000006977 0.0000006795 0.0000014478
0.0000000000 0.0000000000 0.0000000000
0.0000000000 0.0000000000 0.0000000000
0.0000002334 0.0000002146 0.0000003978
0.0000005535 0.0000005513 0.0000010564
0.0000009182 0.0000010711 0.0000019738
0.0000000000 0.0000000000 0.0000000000
0.0000000000 0.0000000000 0.0000000000
-0.0000002040 -0.0000001967 0.0000001455
0.0000000633 0.0000000411 0.0000002439
0.0000003162 0.0000002868 0.0000006123
0.0000005100 0.0000006084 0.0000011998
0.0000007939 0.0000013029 0.0000021157
0.0000007651 0.0000017039 0.0000028032
-0.0000003148 -0.0000002795 0.0000001561
-0.0000006405 -0.0000006240 0.0000004721
0.0000002714 0.0000012483 0.0000017027
0.0000002087 0.0000013052 0.0000017887
-0.0000001692 -0.0000001333 0.0000002066
0.0000000963 0.0000000965 0.0000004017
0.0000002431 0.0000004509 0.0000008776
0.0000003133 0.0000006661 0.0000012553
0.0000000000 0.0000000000 0.0000000000
0.0000000000 0.0000000000 0.0000000000
0.0000000000 0.0000000000 0.0000000000
0.0000000000 0.0000000000 0.0000000000
0.0000000000 0.0000000000 0.0000000000
0.0000000000 0.0000000000 0.0000000000
0.0000000000 0.0000000000 0.0000000000
0.0000000000 0.0000000000 0.0000000000
0.0000000000 0.0000000000 0.0000000000
0.0000000000 0.0000000000 0.0000000000
0.0000003580 0.0000002224 0.0000008451
0.0000000000 0.0000000000 0.0000000000
0.0000008301 0.0000006560 0.0000017270
0.0000003853 0.0000003006 0.0000007608
0.0000000000 0.0000000000 0.0000000000
0.0000000000 0.0000000000 0.0000000000
0.0000000000 0.0000000000 0.0000000000
0.0000011765 0.0000011578 0.0000025498
0.0000002685 0.0000002339 0.0000005600
0.0000006749 0.0000006036 0.0000014145
0.0000000000 0.0000000000 0.0000000000
0.0000000000 0.0000000000 0.0000000000
-0.0000002875 -0.0000002508 0.0000003193
0.0000000563 0.0000000534 0.0000004691
0.0000003894 0.0000003772 0.0000010050
0.0000006701 0.0000007900 0.0000018775
0.0000011607 0.0000016124 0.0000030976
0.0000011316 0.0000021031 0.0000041809
-0.0000005769 -0.0000004966 0.0000003920
-0.0000011360 -0.0000010013 0.0000008090
0.0000006225 0.0000019837 0.0000033129
0.0000005122 0.0000020712 0.0000035393
-0.0000003465 -0.0000002457 0.0000005968
0.0000000971 0.0000001790 0.0000009869
0.0000003804 0.0000007883 0.0000018967
0.0000005281 0.0000012164 0.0000025823
-0.0000005085 -0.0000004441 0.0000004455
-0.0000009780 -0.0000010291 0.0000008472
0.0000001933 0.0000007288 0.0000014667
0.0000001156 0.0000013331 0.0000018758
0.0000000370 0.0000013410 0.0000019215
-0.0000000481 0.0000013315 0.0000019713
-0.0000002156 -0.0000001161 0.0000005653
0.0000000427 0.0000001686 0.0000007639
0.0000000933 0.0000005125 0.0000011705
0.0000000000 0.0000000000 0.0000000000
0.0000000000 0.0000000000 0.0000000000
0.0000000000 0.0000000000 0.0000000000
0.0000000000 0.0000000000 0.0000000000
0.0000000000 0.0000000000 0.0000000000
0.0000000000 0.0000000000 0.0000000000
0.0000000000 0.0000000000 0.0000000000
0.0000000000 0.0000000000 0.0000000000
0.0000000000 0.0000000000 0.0000000000
0.0000000000 0.0000000000 0.0000000000
0.0000003916 0.0000001718 0.0000009221
0.0000009454 0.0000005753 0.0000019739
0.0000004320 0.0000002639 0.0000008777
0.0000000000 0.0000000000 0.0000000000
0.0000000000 0.0000000000 0.0000000000
0.0000000000 0.0000000000 0.0000000000
0.0000014083 0.0000011284 0.0000030965
0.0000007822 0.0000005915 0.0000017536
0.0000002982 0.0000002292 0.0000007148
0.0000000000 0.0000000000 0.0000000000
0.0000000000 0.0000000000 0.0000000000
-0.0000003722 -0.0000002745 0.0000005109
0.0000014715 0.0000022658 0.0000055748
0.0000014967 0.0000017451 0.0000040787
0.0000000399 0.0000000594 0.0000007126
0.0000008061 0.0000008700 0.0000025626
0.0000004434 0.0000004191 0.0000014078
-0.0000008238 -0.0000006332 0.0000006829
-0.0000015992 -0.0000012179 0.0000011691
0.0000009558 0.0000024382 0.0000050073
0.0000008076 0.0000025443 0.0000053899
-0.0000005355 -0.0000003247 0.0000010818
0.0000000481 0.0000002402 0.0000016692
0.0000004570 0.0000010128 0.0000030205
0.0000007018 0.0000015766 0.0000039849
-0.0000009941 -0.0000007792 0.0000010483
-0.0000018499 -0.0000016729 0.0000015492
0.0000003115 0.0000013300 0.0000030781
0.0000003739 0.0000021190 0.0000037467
0.0000002166 0.0000021343 0.0000039331
0.0000000408 0.0000021220 0.0000041002
-0.0000005087 -0.0000002165 0.0000014189
-0.0000000544 0.0000003157 0.0000018011
0.0000000587 0.0000008928 0.0000026145
-0.0000005881 -0.0000005582 0.0000008375
-0.0000011469 -0.0000014378 0.0000012916
0.0000000299 0.0000007072 0.0000016161
-0.0000001553 0.0000013058 0.0000020080
-0.0000002307 0.0000012673 0.0000020147
-0.0000002750 -0.0000000333 0.0000010737
-0.0000000850 0.0000004098 0.0000013085
-0.0000003124 0.0000012063 0.0000020249
0.0000000000 0.0000000000 0.0000000000
0.0000000000 0.0000000000 0.0000000000
0.0000000000 0.0000000000 0.0000000000
0.0000000000 0.0000000000 0.0000000000
0.0000000000 0.0000000000 0.0000000000
0.0000000000 0.0000000000 0.0000000000
0.0000000000 0.0000000000 0.0000000000
0.0000000000 0.0000000000 0.0000000000
0.0000004153 0.0000001084 0.0000009762
0.0000000000 0.0000000000 0.0000000000
0.0000004697 0.0000002052 0.0000009723
0.0000010383 0.0000004471 0.0000021741
0.0000000000 0.0000000000 0.0000000000
0.0000000000 0.0000000000 0.0000000000
0.0000016089 0.0000009950 0.0000035825
0.0000008744 0.0000005231 0.0000020541
0.0000003234 0.0000002029 0.0000008520
0.0000000000 0.0000000000 0.0000000000
0.0000000000 0.0000000000 0.0000000000
-0.0000004542 -0.0000002694 0.0000006990
0.0000017986 0.0000017004 0.0000050160
0.0000017760 0.0000021980 0.0000069078
0.0000000203 0.0000000590 0.0000009495
0.0000009236 0.0000008549 0.0000032157
0.0000004865 0.0000004147 0.0000017932
-0.0000010697 -0.0000006894 0.0000009913
-0.0000020555 -0.0000013035 0.0000015414
0.0000012585 0.0000026126 0.0000067326
0.0000010729 0.0000027206 0.0000072788
0.0000008490 0.0000017231 0.0000054051
-0.0000007305 -0.0000003610 0.0000015951
0.0000005105 0.0000011056 0.0000041637
-0.0000000200 0.0000002693 0.0000023764
-0.0000014912 -0.0000010020 0.0000017583
-0.0000027155 -0.0000020603 0.0000023049
0.0000003932 0.0000017179 0.0000048050
0.0000006168 0.0000025979 0.0000057541
0.0000003892 0.0000026144 0.0000060956
0.0000001272 0.0000025941 0.0000064175
-0.0000008466 -0.0000002892 0.0000024138
-0.0000002130 0.0000004158 0.0000029731
-0.0000000318 0.0000011229 0.0000042084
-0.0000012497 -0.0000009483 0.0000019501
-0.0000023117 -0.0000023220 0.0000024906
-0.0000000100 0.0000012842 0.0000034867
-0.0000001486 0.0000020828 0.0000042489
-0.0000003480 0.0000020128 0.0000043767
-0.0000007230 -0.0000000657 0.0000025631
-0.0000003241 0.0000007088 0.0000030112
-0.0000005563 0.0000019092 0.0000044850
-0.0000005607 -0.0000005444 0.0000012301
-0.0000011207 -0.0000017170 0.0000016623
-0.0000001733 0.0000005458 0.0000016896
-0.0000003682 0.0000000142 0.0000013486
-0.0000002594 0.0000001796 0.0000013404
-0.0000004015 0.0000011193 0.0000020182
0.0000000000 0.0000000000 0.0000000000
0.0000000000 0.0000000000 0.0000000000
0.0000000000 0.0000000000 0.0000000000
0.0000000000 0.0000000000 0.0000000000
0.0000000000 0.0000000000 0.0000000000
0.0000000000 0.0000000000 0.0000000000
0.0000000000 0.0000000000 0.0000000000
0.0000000000 0.0000000000 0.0000000000
0.0000004275 0.0000000370 0.0000010042
0.0000000000 0.0000000000 0.0000000000
0.0000004961 0.0000001300 0.0000010387
0.0000011036 0.0000002830 0.0000023151
0.0000000000 0.0000000000 0.0000000000
0.0000000000 0.0000000000 0.0000000000
0.0000003434 0.0000001586 0.0000009630
0.0000009483 0.0000004084 0.0000022976
0.0000017700 0.0000007754 0.0000039771
0.0000000000 0.0000000000 0.0000000000
0.0000000000 0.0000000000 0.0000000000
-0.0000005281 -0.0000002385 0.0000008676
0.0000020590 0.0000014980 0.0000058499
0.0000020386 0.0000019292 0.0000080922
0.0000000013 0.0000000527 0.0000011608
0.0000010232 0.0000007567 0.0000037951
0.0000005218 0.0000003689 0.0000021353
-0.0000013052 -0.0000006730 0.0000012922
-0.0000024915 -0.0000012625 0.0000019065
0.0000015249 0.0000025222 0.0000083799
0.0000013070 0.0000026226 0.0000090803
0.0000009721 0.0000016828 0.0000067610
-0.0000009191 -0.0000003567 0.0000020909
0.0000005501 0.0000010788 0.0000052526
-0.0000000927 0.0000002674 0.0000030538
-0.0000019912 -0.0000010951 0.0000024946
-0.0000035777 -0.0000022165 0.0000030858
0.0000004499 0.0000018700 0.0000065573
0.0000008285 0.0000027743 0.0000078057
0.0000005284 0.0000027857 0.0000083094
0.0000001791 0.0000027556 0.0000087902
-0.0000001465 0.0000012083 0.0000058334
-0.0000011989 -0.0000003211 0.0000034386
-0.0000003920 0.0000004585 0.0000041734
-0.0000019726 -0.0000011990 0.0000032280
-0.0000035479 -0.0000028369 0.0000037974
-0.0000001010 0.0000016584 0.0000055283
-0.0000001685 0.0000025357 0.0000067201
-0.0000004932 0.0000024407 0.0000069944
-0.0000012503 -0.0000000912 0.0000042476
-0.0000006281 0.0000008836 0.0000049025
-0.0000008435 0.0000022975 0.0000072416
-0.0000013439 -0.0000008665 0.0000028626
-0.0000024646 -0.0000027367 0.0000033632
-0.0000004879 0.0000009887 0.0000038019
-0.0000009679 -0.0000000137 0.0000032096
-0.0000007232 0.0000002945 0.0000031586
-0.0000007703 0.0000017660 0.0000045749
-0.0000010003 -0.0000018445 0.0000018811
-0.0000008506 -0.0000018274 0.0000019865
-0.0000006811 -0.0000004969 0.0000016060
-0.0000003960 0.0000002442 0.0000017160
-0.0000004602 0.0000010153 0.0000019953
0.0000000000 0.0000000000 0.0000000000
0.0000000000 0.0000000000 0.0000000000
0.0000000000 0.0000000000 0.0000000000
0.0000000000 0.0000000000 0.0000000000
-0.0000007032 -0.0000014442 0.0000020066
0.0000000000 0.0000000000 0.0000000000
0.0000000000 0.0000000000 0.0000000000
0.0000004275 -0.0000000371 0.0000010042
0.0000000000 0.0000000000 0.0000000000
0.0000005098 0.0000000445 0.0000010731
0.0000011374 0.0000000968 0.0000023880
0.0000000000 0.0000000000 0.0000000000
0.0000000000 0.0000000000 0.0000000000
0.0000003574 0.0000001008 0.0000010410
0.0000010000 0.0000002592 0.0000024688
0.0000018829 0.0000004916 0.0000042552
0.0000000000 0.0000000000 0.0000000000
0.0000000000 0.0000000000 0.0000000000
-0.0000005886 -0.0000001863 0.0000010044
-0.0000000146 0.0000000414 0.0000013320
0.0000005496 0.0000002891 0.0000024123
0.0000011024 0.0000005908 0.0000042644
0.0000022675 0.0000011662 0.0000065268
0.0000022468 0.0000014978 0.0000090517
-0.0000015158 -0.0000005935 0.0000015618
-0.0000028814 -0.0000011086 0.0000022355
0.0000017524 0.0000022055 0.0000098433
0.0000015037 0.0000022915 0.0000106777
0.0000010759 0.0000014822 0.0000079650
-0.0000010882 -0.0000003166 0.0000025317
0.0000005809 0.0000009497 0.0000062170
-0.0000001598 0.0000002381 0.0000036541
-0.0000024680 -0.0000010692 0.0000032024
-0.0000043985 -0.0000021485 0.0000038449
0.0000004859 0.0000018184 0.0000082316
0.0000010115 0.0000026709 0.0000097596
0.0000006481 0.0000026769 0.0000104173
0.0000002165 0.0000026424 0.0000110495
-0.0000002609 0.0000011686 0.0000073766
-0.0000015380 -0.0000003161 0.0000044159
-0.0000005689 0.0000004494 0.0000053159
-0.0000027115 -0.0000012933 0.0000045325
-0.0000048058 -0.0000030255 0.0000051391
-0.0000002082 0.0000017951 0.0000076092
-0.0000002197 0.0000026850 0.0000092481
-0.0000006656 0.0000025719 0.0000096743
-0.0000009552 0.0000009414 0.0000068323
-0.0000017962 -0.0000001029 0.0000059610
-0.0000011577 0.0000024053 0.0000100641
-0.0000022275 -0.0000010703 0.0000047194
-0.0000039721 -0.0000032951 0.0000052475
-0.0000008711 0.0000012669 0.0000061483
-0.0000016670 -0.0000000442 0.0000052955
-0.0000012710 0.0000003527 0.0000051936
-0.0000012158 0.0000021004 0.0000074602
-0.0000024356 -0.0000028641 0.0000039832
-0.0000023460 -0.0000027708 0.0000043823
-0.0000017056 -0.0000009095 0.0000037834
-0.0000010668 0.0000004181 0.0000040375
-0.0000009853 0.0000015732 0.0000046456
-0.0000007022 -0.0000007139 0.0000018379
-0.0000005628 -0.0000000466 0.0000017836
-0.0000005240 0.0000008677 0.0000019710
0.0000000000 0.0000000000 0.0000000000
0.0000000000 0.0000000000 0.0000000000
0.0000000000 0.0000000000 0.0000000000
-0.0000006111 -0.0000007567 0.0000019495
-0.0000021968 -0.0000021768 0.0000046255
0.0000000000 0.0000000000 0.0000000000
0.0000000000 0.0000000000 0.0000000000
0.0000004153 -0.0000001084 0.0000009762
0.0000000000 0.0000000000 0.0000000000
0.0000005098 -0.0000000445 0.0000010730
0.0000011374 -0.0000000969 0.0000023880
0.0000000000 0.0000000000 0.0000000000
0.0000000000 0.0000000000 0.0000000000
0.0000003646 0.0000000345 0.0000010812
0.0000010267 0.0000000888 0.0000025572
0.0000019411 0.0000001683 0.0000043989
0.0000000000 0.0000000000 0.0000000000
0.0000000000 0.0000000000 0.0000000000
-0.0000006315 -0.0000001183 0.0000011005
-0.0000000259 0.0000000264 0.0000014522
0.0000005689 0.0000001838 0.0000026068
0.0000011578 0.0000003749 0.0000045941
0.0000024133 0.0000007388 0.0000070032
0.0000023925 0.0000009469 0.0000097271
-0.0000016875 -0.0000004624 0.0000017811
-0.0000031994 -0.0000008615 0.0000025042
0.0000019412 0.0000017082 0.0000110298
0.0000016595 0.0000017708 0.0000119721
-0.0000012260 -0.0000002476 0.0000028884
-0.0000002149 0.0000001866 0.0000041392
0.0000006047 0.0000007385 0.0000069962
0.0000011608 0.0000011532 0.0000089341
-0.0000028922 -0.0000009417 0.0000038313
-0.0000051286 -0.0000018848 0.0000045248
0.0000005112 0.0000015955 0.0000097168
0.0000011610 0.0000023303 0.0000114893
0.0000007438 0.0000023322 0.0000122806
0.0000002406 0.0000022971 0.0000130451
-0.0000003647 0.0000010212 0.0000087384
-0.0000018401 -0.0000002798 0.0000052795
-0.0000007275 0.0000003965 0.0000063247
-0.0000034160 -0.0000012506 0.0000057735
-0.0000060056 -0.0000029104 0.0000064298
-0.0000003210 0.0000017355 0.0000095863
-0.0000002814 0.0000025657 0.0000116548
-0.0000008446 0.0000024469 0.0000122223
-0.0000012696 0.0000009005 0.0000086589
-0.0000023181 -0.0000001033 0.0000075842
-0.0000014705 0.0000022771 0.0000127434
-0.0000031340 -0.0000011388 0.0000066022
-0.0000055269 -0.0000034706 0.0000071709
-0.0000012716 0.0000013595 0.0000085390
-0.0000018370 0.0000003640 0.0000072637
-0.0000023861 -0.0000000642 0.0000074134
-0.0000016897 0.0000021808 0.0000104127
-0.0000041056 -0.0000033980 0.0000063183
-0.0000041090 -0.0000032456 0.0000070430
-0.0000028951 -0.0000011833 0.0000062233
-0.0000018544 0.0000005109 0.0000066415
-0.0000016055 0.0000018433 0.0000076460
-0.0000019315 -0.0000012270 0.0000043110
-0.0000015257 -0.0000001447 0.0000042977
-0.0000012005 0.0000013154 0.0000047021
-0.0000005918 -0.0000000618 0.0000018747
-0.0000005617 0.0000006754 0.0000019389
0.0000000000 0.0000000000 0.0000000000
-0.0000006025 -0.0000000680 0.0000019133
-0.0000019984 -0.0000011796 0.0000047516
-0.0000039490 -0.0000025558 0.0000075564
0.0000000000 0.0000000000 0.0000000000
0.0000000000 0.0000000000 0.0000000000
0.0000003916 -0.0000001718 0.0000009221
0.0000000000 0.0000000000 0.0000000000
0.0000004961 -0.0000001300 0.0000010387
0.0000011036 -0.0000002831 0.0000023151
0.0000000000 0.0000000000 0.0000000000
0.0000000000 0.0000000000 0.0000000000
0.0000019411 -0.0000001684 0.0000043988
0.0000003646 -0.0000000346 0.0000010812
0.0000010267 -0.0000000888 0.0000025572
0.0000000000 0.0000000000 0.0000000000
0.0000000000 0.0000000000 0.0000000000
-0.0000006537 -0.0000000405 0.0000011500
-0.0000000318 0.0000000091 0.0000015141
0.0000005789 0.0000000630 0.0000027071
0.0000011863 0.0000001284 0.0000047641
0.0000024884 0.0000002528 0.0000072490
0.0000024675 0.0000003237 0.0000100751
-0.0000018087 -0.0000002931 0.0000019353
-0.0000034240 -0.0000005453 0.0000026940
0.0000020665 0.0000010796 0.0000118589
0.0000017727 0.0000011177 0.0000128786
-0.0000013232 -0.0000001572 0.0000031386
-0.0000002538 0.0000001187 0.0000044794
0.0000006211 0.0000004675 0.0000075431
0.0000012190 0.0000007297 0.0000096150
-0.0000032364 -0.0000007326 0.0000043403
-0.0000057210 -0.0000014628 0.0000050775
0.0000005353 0.0000012389 0.0000109064
0.0000012851 0.0000018001 0.0000128907
0.0000008163 0.0000017995 0.0000137876
0.0000002562 0.0000017710 0.0000146557
-0.0000020850 -0.0000002183 0.0000059755
-0.0000008564 0.0000003086 0.0000071385
-0.0000004494 0.0000007900 0.0000098372
-0.0000040399 -0.0000010939 0.0000068693
-0.0000070678 -0.0000025376 0.0000075770
-0.0000004205 0.0000015212 0.0000113331
-0.0000003439 0.0000022260 0.0000137779
-0.0000010101 0.0000021158 0.0000144689
-0.0000015468 0.0000007807 0.0000102652
-0.0000027790 -0.0000000924 0.0000090142
-0.0000017529 0.0000019623 0.0000151037
-0.0000039958 -0.0000010926 0.0000083853
-0.0000070056 -0.0000033063 0.0000090072
-0.0000016574 0.0000013069 0.0000108091
-0.0000023780 0.0000003400 0.0000092223
-0.0000030694 -0.0000000737 0.0000094167
-0.0000021519 0.0000020516 0.0000132114
-0.0000058290 -0.0000035383 0.0000087020
-0.0000059157 -0.0000033540 0.0000097607
-0.0000041179 -0.0000012844 0.0000086901
-0.0000026604 0.0000005252 0.0000092921
-0.0000022547 0.0000018893 0.0000107129
-0.0000033671 -0.0000015335 0.0000070833
-0.0000026567 -0.0000002241 0.0000071140
-0.0000020071 0.0000015045 0.0000077999
-0.0000016780 -0.0000001683 0.0000045699
-0.0000014116 0.0000009721 0.0000047447
-0.0000005828 0.0000003987 0.0000019183
-0.0000018030 -0.0000001927 0.0000047959